
Host: morifam

Timers On : Sun Sep  1 13:32:55 2024
Timers Off: Sun Sep  1 13:40:06 2024

Wall Time:      431.61 seconds

                                                       Time (seconds)
Module                                       User      System        Wall        Calls

--------------------------------------------------------------------------------------

**************************************************************************************
