Title

8 atoms
7 bonds
10 angles
15 dihedrals
3 impropers

6 atom types
5 bond types
5 angle types
7 dihedral types
1 improper types
-1.59764138 98.40235862 xlo xhi
-0.9259822513 99.07401775 ylo yhi
-0.5956870809 99.40431292 zlo zhi
0.0 0.0 0.0 xy xz yz

Masses

1	12.01078
2	12.01078
3	15.99943
4	15.99943
5	1.007947
6	1.007947


Pair Coeffs

1	0.10884061	3.3795318
2	0.086879315	3.4806469
3	0.2102061	3.0398122
4	0.20947353	2.99716
5	0.015779483	2.6445434
6	1.2326e-05	0.53453923

Bond Coeffs

1 harmonic	329.44145381095	1.523435958334
2 harmonic	370.04670688625	1.093899492634
3 harmonic	582.698766451	1.225198386222
4 harmonic	385.7604595587	1.369745182308
5 harmonic	543.5267831885	0.9716763312559


Angle Coeffs

1 harmonic	57.8982893754	126.8062420451
2 harmonic	53.20531626545	116.5475862634
3 harmonic	65.09061609600001	110.3538806181
4 harmonic	201.41175231035	127.4691416191
5 harmonic	48.776492647595	115.6030999533


Dihedral Coeffs

1 fourier 1	2.687457892086	2	180
2 fourier 1	0.4541676554336	1	0
3 fourier 1	0.1489710476446	2	0
4 fourier 1	0.02960027280666	3	180
5 fourier 1	2.772607909663	2	180
6 fourier 1	0.09692684957115	1	0
7 fourier 1	0.02664938770063	3	0


Improper Coeffs

1 3.5	-1	2


Atoms

1	1	1	-0.149975	-0.99041295	-0.091748499	0.066337529
2	1	2	0.635225	0.43247427	0.27295597	-0.12959981
3	1	3	-0.551875	0.80093241	1.4667367	0.088620849
4	1	4	-0.610975	1.4883211	-0.51602839	-0.53423127
5	1	5	0.077825	-1.5976414	0.81181847	-0.061854597
6	1	5	0.077825	-1.1672559	-0.45296307	1.1060438
7	1	5	0.077825	-1.2933535	-0.92598225	-0.59568708
8	1	6	0.444125	2.3269359	-0.56478895	0.06037056

Bonds

1	1	1	2
2	2	1	5
3	2	1	6
4	2	1	7
5	3	2	3
6	4	2	4
7	5	4	8

Angles

1	1	1	2	3
2	1	1	2	4
3	2	2	1	5
4	2	2	1	6
5	2	2	1	7
6	3	2	4	8
7	4	3	2	4
8	5	5	1	6
9	5	5	1	7
10	5	6	1	7

Dihedrals

1	1	1	2	4	8
2	2	3	2	1	5
3	3	3	2	1	5
4	4	3	2	1	5
5	2	3	2	1	6
6	3	3	2	1	6
7	4	3	2	1	6
8	2	3	2	1	7
9	3	3	2	1	7
10	4	3	2	1	7
11	5	3	2	4	8
12	6	3	2	4	8
13	7	4	2	1	5
14	7	4	2	1	6
15	7	4	2	1	7

Impropers

1	1	1	2	3	4
2	1	3	2	4	1
3	1	4	2	1	3
