LAMMPS (29 Aug 2024)
OMP_NUM_THREADS environment is not set. Defaulting to 1 thread. (src/comm.cpp:98)
  using 1 OpenMP thread(s) per MPI task

units real
atom_style full

dimension 3
boundary p p p

bond_style hybrid harmonic
angle_style hybrid harmonic
dihedral_style hybrid fourier
improper_style cvff
special_bonds lj 0.0 0.0 0.5 coul 0.0 0.0 0.8333333333
pair_style lj/cut/coul/cut 12.0 12.0
pair_modify mix arithmetic tail yes

read_data acetic_acid.data
Reading data file ...
  triclinic box = (-1.5976414 -0.92598225 -0.59568708) to (98.402359 99.074018 99.404313) with tilt (0 0 0)
  1 by 1 by 1 MPI processor grid
  reading atoms ...
  8 atoms
  scanning bonds ...
  4 = max bonds/atom
  scanning angles ...
  6 = max angles/atom
  scanning dihedrals ...
  15 = max dihedrals/atom
  scanning impropers ...
  3 = max impropers/atom
  triclinic box = (-1.5976414 -0.92598225 -0.59568708) to (98.402359 99.074018 99.404313) with tilt (0 0 0)
  1 by 1 by 1 MPI processor grid
  reading bonds ...
  7 bonds
  reading angles ...
  10 angles
  reading dihedrals ...
  15 dihedrals
  reading impropers ...
  3 impropers
Finding 1-2 1-3 1-4 neighbors ...
  special bond factors lj:    0        0        0.5     
  special bond factors coul:  0        0        0.8333333333
     4 = max # of 1-2 neighbors
     4 = max # of 1-3 neighbors
     6 = max # of 1-4 neighbors
     7 = max # of special neighbors
  special bonds CPU = 0.000 seconds
  read_data CPU = 0.002 seconds

compute DIPOLE all dipole
thermo_style custom step time ebond eangle edihed eimp epair evdwl ecoul elong etail pe c_DIPOLE[0] c_DIPOLE[1] c_DIPOLE[2]
dump 1 all custom 1000 acetic_acid.lammpstrj id type x y z
timestep 1.0
fix NVT all nvt temp 300.0 300.0 100.0
thermo 1000
run 1000000

CITE-CITE-CITE-CITE-CITE-CITE-CITE-CITE-CITE-CITE-CITE-CITE-CITE

Your simulation uses code contributions which should be cited:

- Type Label Framework: https://doi.org/10.1021/acs.jpcb.3c08419

@Article{Gissinger24,
 author = {Jacob R. Gissinger, Ilia Nikiforov, Yaser Afshar, Brendon Waters, Moon-ki Choi, Daniel S. Karls, Alexander Stukowski, Wonpil Im, Hendrik Heinz, Axel Kohlmeyer, and Ellad B. Tadmor},
 title = {Type Label Framework for Bonded Force Fields in LAMMPS},
 journal = {J. Phys. Chem. B},
 year =    2024,
 volume =  128,
 number =  13,
 pages =   {3282–-3297}
}

CITE-CITE-CITE-CITE-CITE-CITE-CITE-CITE-CITE-CITE-CITE-CITE-CITE

Generated 15 of 15 mixed pair_coeff terms from arithmetic mixing rule
Neighbor list info ...
  update: every = 1 steps, delay = 0 steps, check = yes
  max neighbors/atom: 2000, page size: 100000
  master list distance cutoff = 14
  ghost atom cutoff = 14
  binsize = 7, bins = 15 15 15
  1 neighbor lists, perpetual/occasional/extra = 1 0 0
  (1) pair lj/cut/coul/cut, perpetual
      attributes: half, newton on
      pair build: half/bin/newton/tri
      stencil: half/bin/3d/tri
      bin: standard
Per MPI rank memory allocation (min/avg/max) = 14.08 | 14.08 | 14.08 Mbytes
   Step          Time          E_bond        E_angle        E_dihed        E_impro         E_pair         E_vdwl         E_coul         E_long         E_tail         PotEng      c_DIPOLE[0]    c_DIPOLE[1]    c_DIPOLE[2]  
         0   0              3.7069713      22.888531      9.4658303      5.7299721e-11 -48.225561      0.20973539    -48.435296      0             -1.6125875e-05 -12.164228      0.68387062    -0.21046887    -0.60199997   
      1000   1000           1.198946       11.325769      3.5160263      0.2941037     -50.627497      0.18363095    -50.811128      0             -1.6125875e-05 -34.292652      0.44827019    -0.15688694    -0.38205564   
      2000   2000           3.9979253      13.465644      2.2623573      0.048483332   -53.885852      0.28471773    -54.17057       0             -1.6125875e-05 -34.111442      0.36297917    -0.18151823    -0.31241369   
      3000   3000           2.3749391      10.348174      3.0603947      0.0014847616  -52.577349      0.20441257    -52.781762      0             -1.6125875e-05 -36.792356      0.43378176    -0.15569671    -0.39899468   
      4000   4000           0.84653228     9.9338597      2.8148338      0.0053544983  -49.915191      0.19391974    -50.109111      0             -1.6125875e-05 -36.314611      0.41311499    -0.12357564    -0.35872065   
      5000   5000           1.7419542      14.308728      2.2864844      1.0022325     -53.183675      0.1996625     -53.383337      0             -1.6125875e-05 -33.844276      0.38225815    -0.19951009    -0.32466419   
      6000   6000           1.6066078      10.756447      3.557624       0.43257462    -52.051505      0.11040015    -52.161905      0             -1.6125875e-05 -35.698251      0.41903261    -0.13632709    -0.38882166   
      7000   7000           2.0572439      8.3487263      3.3862925      0.13945546    -50.239283      0.41887181    -50.658154      0             -1.6125875e-05 -36.307564      0.45164874    -0.14737585    -0.37101497   
      8000   8000           0.84186483     10.105627      2.5099665      0.0010469464  -52.466112      0.21623349    -52.682346      0             -1.6125875e-05 -39.007606      0.39164649    -0.14264216    -0.36048316   
      9000   9000           1.0122279      11.90038       3.1082456      0.77597248    -51.914553      0.30319438    -52.217747      0             -1.6125875e-05 -35.117727      0.37556158    -0.15827774    -0.30862201   
     10000   10000          0.86664046     10.920846      3.3472129      0.10811971    -51.192009      0.57326952    -51.765279      0             -1.6125875e-05 -35.94919       0.42753717    -0.14525968    -0.35602052   
     11000   11000          3.4089898      9.0233075      2.2098814      0.087165848   -52.371148      0.22839407    -52.599542      0             -1.6125875e-05 -37.641804      0.35339238    -0.099417163   -0.33887396   
     12000   12000          3.3085963      10.920581      3.4075265      0.11450177    -50.705145      0.52935718    -51.234503      0             -1.6125875e-05 -32.95394       0.37572567    -0.11435307    -0.34756551   
     13000   13000          2.1726527      10.93046       2.8298962      0.21760455    -52.545369      0.28623955    -52.831609      0             -1.6125875e-05 -36.394755      0.37373752    -0.1336829     -0.31850959   
     14000   14000          3.0137873      9.759119       2.4622476      0.03261648    -51.764184      0.42304495    -52.187229      0             -1.6125875e-05 -36.496414      0.38716777    -0.12875637    -0.34350289   
     15000   15000          0.34869856     9.4029183      2.56758        0.0073003309  -51.253397      0.54448666    -51.797884      0             -1.6125875e-05 -38.9269        0.39083201    -0.10303571    -0.37455939   
     16000   16000          2.2678027      10.044554      4.4547175      0.029604912   -51.878179      0.22764159    -52.10582       0             -1.6125875e-05 -35.0815        0.46066138    -0.1451223     -0.41129895   
     17000   17000          0.82628751     9.0421486      2.4362456      0.39468775    -51.580865      0.35524837    -51.936114      0             -1.6125875e-05 -38.881496      0.37825927    -0.1532784     -0.33286935   
     18000   18000          3.3260222      10.758686      2.7091066      0.83278779    -51.230398      0.18917181    -51.419569      0             -1.6125875e-05 -33.603795      0.41205898    -0.1034787     -0.38349345   
     19000   19000          1.4124031      16.596361      2.1247353      0.29017768    -54.080062      0.15601391    -54.236076      0             -1.6125875e-05 -33.656385      0.35935539    -0.21047892    -0.29120439   
     20000   20000          1.1495447      11.865649      3.7972483      1.2436122     -50.098617      0.06329362    -50.161911      0             -1.6125875e-05 -32.042563      0.43397608    -0.1191731     -0.41161744   
     21000   21000          1.5223639      9.2374697      2.2209799      0.0049117676  -50.625983      0.43195986    -51.057943      0             -1.6125875e-05 -37.640258      0.41994652    -0.13207133    -0.38235274   
     22000   22000          3.2408193      10.994176      2.8784363      0.35606455    -51.960195      0.16242492    -52.12262       0             -1.6125875e-05 -34.490699      0.4492856     -0.17165976    -0.3891285    
     23000   23000          1.1107981      10.834885      2.8633212      0.45607161    -51.81398       0.14354739    -51.957527      0             -1.6125875e-05 -36.548904      0.40722329    -0.18717525    -0.33826443   
     24000   24000          1.1762299      9.8587189      2.3973607      0.028370115   -51.412399      0.25390068    -51.666299      0             -1.6125875e-05 -37.951719      0.38917668    -0.16584781    -0.32739621   
     25000   25000          2.973442       8.9887004      2.349213       0.3830275     -52.290513      0.18692937    -52.477443      0             -1.6125875e-05 -37.59613       0.38050094    -0.11412707    -0.3629186    
     26000   26000          2.1540338      12.235199      2.8167944      1.249404      -51.437016      0.41125062    -51.848267      0             -1.6125875e-05 -32.981585      0.37915147    -0.16054713    -0.33039352   
     27000   27000          1.8904944      10.212357      2.4654513      0.44419296    -52.598885      0.19600097    -52.794886      0             -1.6125875e-05 -37.586389      0.36738763    -0.15128021    -0.31984951   
     28000   28000          1.9011585      10.631357      3.0262361      0.010586281   -51.716773      0.38547333    -52.102246      0             -1.6125875e-05 -36.147435      0.39593011    -0.1822755     -0.30982846   
     29000   29000          4.2530122      9.6595984      6.3638679      3.0829138e-06 -50.204771      0.63707384    -50.841845      0             -1.6125875e-05 -29.92829       0.51337697    -0.079536023   -0.46471317   
     30000   30000          1.8388788      10.183204      3.1226699      0.53196923    -50.65207       0.47562415    -51.127694      0             -1.6125875e-05 -34.975348      0.42254392    -0.13086363    -0.37020465   
     31000   31000          1.1897937      13.133601      2.6435075      0.49248973    -52.628874      0.27292309    -52.901797      0             -1.6125875e-05 -35.169482      0.37051272    -0.15282097    -0.33494986   
     32000   32000          0.77926997     10.188489      2.6662408      0.19305235    -51.448885      0.70739569    -52.156281      0             -1.6125875e-05 -37.621833      0.36903135    -0.07953335    -0.3583899    
     33000   33000          1.9382658      15.879574      2.4452073      0.11742622    -54.180859      0.60697662    -54.787836      0             -1.6125875e-05 -33.800386      0.3416162     -0.20451392    -0.25708234   
     34000   34000          1.6852849      11.749528      2.7004971      0.098348383   -51.983216      0.081505253   -52.064721      0             -1.6125875e-05 -35.749558      0.40400918    -0.1565314     -0.33739328   
     35000   35000          0.94182143     11.401688      2.7180939      1.4207077     -50.33896       0.36879495    -50.707755      0             -1.6125875e-05 -33.856649      0.42297913    -0.10933136    -0.40762338   
     36000   36000          1.5057643      12.157364      2.0422404      0.016063222   -52.026523      0.12846471    -52.154987      0             -1.6125875e-05 -36.305091      0.38277015    -0.13374091    -0.35304617   
     37000   37000          2.2229052      10.550061      2.5085132      0.61620063    -52.300172      0.22884846    -52.529021      0             -1.6125875e-05 -36.402493      0.36762806    -0.15860909    -0.32055039   
     38000   38000          2.9372814      10.420466      2.2786075      0.047441597   -52.206407      0.33771319    -52.54412       0             -1.6125875e-05 -36.52261       0.38307163    -0.13421203    -0.35651569   
     39000   39000          1.9391699      10.208116      2.9001965      0.23325723    -52.977279      0.094492949   -53.071771      0             -1.6125875e-05 -37.696539      0.40423887    -0.15741673    -0.36807567   
     40000   40000          3.9193363      10.585064      4.9654329      0.19185982    -51.39094       0.60606916    -51.997009      0             -1.6125875e-05 -31.729247      0.45154312    -0.16914812    -0.39387997   
     41000   41000          4.5373323      13.085476      2.1563786      0.12071968    -52.145031      1.116063      -53.261094      0             -1.6125875e-05 -32.245124      0.34200753    -0.14025169    -0.30487983   
     42000   42000          3.4486416      12.196338      3.4229872      0.71856056    -52.234261      0.21418186    -52.448443      0             -1.6125875e-05 -32.447734      0.41590742    -0.177987      -0.34556331   
     43000   43000          0.70304598     11.749471      2.7672093      0.15584689    -50.6526        0.43043108    -51.083031      0             -1.6125875e-05 -35.277027      0.39613086    -0.13063031    -0.34690551   
     44000   44000          4.9364751      12.684735      2.0927668      0.0014959828  -52.926325      0.3178454     -53.24417       0             -1.6125875e-05 -33.210852      0.33960294    -0.13931594    -0.30590404   
     45000   45000          2.6584494      13.402772      2.4768918      0.40443892    -53.202649      0.32763285    -53.530282      0             -1.6125875e-05 -34.260097      0.37091386    -0.18125476    -0.32304451   
     46000   46000          1.7887685      11.385299      2.380479       0.47120931    -51.496411      0.29327435    -51.789686      0             -1.6125875e-05 -35.470656      0.39220695    -0.11287643    -0.37556117   
     47000   47000          5.5895733      10.962681      2.2765795      0.70915689    -52.244189      0.27189493    -52.516084      0             -1.6125875e-05 -32.706198      0.37991796    -0.14165465    -0.35242089   
     48000   48000          0.99406993     10.992977      2.2007793      0.37325228    -50.988114      0.55743963    -51.545554      0             -1.6125875e-05 -36.427036      0.38573249    -0.084152377   -0.37619646   
     49000   49000          3.391027       10.631116      2.2784231      0.21729479    -52.454069      0.24961156    -52.703681      0             -1.6125875e-05 -35.936208      0.34661282    -0.12406737    -0.32244388   
     50000   50000          1.6631306      18.359569      2.4273756      0.37008954    -55.081855      0.07909044    -55.160945      0             -1.6125875e-05 -32.26169       0.35413594    -0.20646222    -0.28447104   
     51000   51000          2.8764761      14.966829      2.3711276      0.050765694   -51.810716      0.20157964    -52.012296      0             -1.6125875e-05 -31.545518      0.389169      -0.10629097    -0.37072918   
     52000   52000          1.4764085      9.7922528      2.0096983      0.029143233   -51.778935      0.31069251    -52.089628      0             -1.6125875e-05 -38.471432      0.38509459    -0.15026463    -0.35422739   
     53000   53000          3.3006152      13.015452      2.3704807      0.0036908071  -50.276811      0.42384332    -50.700654      0             -1.6125875e-05 -31.586572      0.44285093    -0.14815961    -0.39944095   
     54000   54000          1.2829243      8.5083914      3.090195       0.039905681   -50.788166      0.30889348    -51.09706       0             -1.6125875e-05 -37.86675       0.42311425    -0.14711113    -0.35807417   
     55000   55000          2.2664387      10.014379      2.5802583      0.22433917    -52.973307      0.17063629    -53.143943      0             -1.6125875e-05 -37.887892      0.39077978    -0.15465835    -0.35424339   
     56000   56000          2.6364738      11.553005      2.2477487      0.37246577    -51.633824      0.60755898    -52.241383      0             -1.6125875e-05 -34.824131      0.37735054    -0.12393339    -0.34606414   
     57000   57000          2.4976773      12.052071      2.3175596      0.47515327    -52.259916      0.547759      -52.807675      0             -1.6125875e-05 -34.917455      0.33793088    -0.12020947    -0.27530083   
     58000   58000          5.2629716      10.12645       2.0735549      0.096667999   -52.137197      0.4351273     -52.572324      0             -1.6125875e-05 -34.577553      0.35646536    -0.12404011    -0.33282182   
     59000   59000          3.7787001      8.7040342      2.3416708      0.3909569     -50.965         0.26628153    -51.231281      0             -1.6125875e-05 -35.749638      0.40263837    -0.081969884   -0.37136373   
     60000   60000          3.4599872      10.230276      2.3880291      0.50126591    -50.874724      0.089560338   -50.964284      0             -1.6125875e-05 -34.295165      0.39919599    -0.11637145    -0.22282816   
     61000   61000          3.4102286      10.186146      2.3046249      0.11634813    -51.738989      0.16734997    -51.906339      0             -1.6125875e-05 -35.721642      0.38702766    -0.18907372    -0.015132161  
     62000   62000          2.2117131      10.945954      2.4357624      0.0088105627  -52.343042      0.15222533    -52.495268      0             -1.6125875e-05 -36.740803      0.39051101    -0.24789445     0.19244632   
     63000   63000          2.816676       10.177818      2.5152024      0.16751981    -51.732277      0.29390266    -52.02618       0             -1.6125875e-05 -36.055061      0.40516065    -0.30620021     0.26452561   
     64000   64000          1.4057484      11.417342      2.1325327      0.36938987    -52.825877      0.11009338    -52.935971      0             -1.6125875e-05 -37.500864      0.3918737     -0.31314064     0.1696385    
     65000   65000          3.3018221      15.33034       2.6389515      0.13696287    -52.367905      0.34704891    -52.714954      0             -1.6125875e-05 -30.959829      0.37840626    -0.28969173     0.079753637  
     66000   66000          5.1940202      12.518981      3.0175807      0.085433456   -52.323303      0.24667217    -52.569975      0             -1.6125875e-05 -31.507288      0.42002882    -0.3090684      0.051735026  
     67000   67000          3.3376051      10.959207      2.2831943      0.14629769    -51.640016      0.11758496    -51.757601      0             -1.6125875e-05 -34.913712      0.40016325    -0.27181472    -0.024399256  
     68000   68000          2.027413       10.696484      2.1099697      0.11071508    -51.385102      0.16188254    -51.546984      0             -1.6125875e-05 -36.44052       0.37116794    -0.16346297    -0.24848363   
     69000   69000          2.25121        17.278696      2.3873999      0.011206791   -53.013635      0.16732875    -53.180963      0             -1.6125875e-05 -31.085122      0.36318469    -0.24528448    -0.13782616   
     70000   70000          0.59007119     11.72137       2.3864756      0.074318024   -52.181233      0.11259256    -52.293825      0             -1.6125875e-05 -37.408998      0.37589089    -0.23173447    -0.13047046   
     71000   71000          2.718516       11.606398      2.2231648      0.10460079    -51.47558       0.41446228    -51.890043      0             -1.6125875e-05 -34.822901      0.39836838    -0.15258356    -0.33830208   
     72000   72000          2.8266075      12.034853      2.3174855      0.28449101    -52.787206      0.21663587    -53.003842      0             -1.6125875e-05 -35.323769      0.38938096    -0.18364526    -0.31563539   
     73000   73000          1.3936566      11.20399       2.4519518      0.23079237    -51.667765      0.22289151    -51.890656      0             -1.6125875e-05 -36.387374      0.37767119    -0.18009711    -0.26041977   
     74000   74000          2.9413957      10.12473       2.1076898      0.21029187    -50.79839       0.27056105    -51.068951      0             -1.6125875e-05 -35.414282      0.39413764    -0.14320847    -0.29416424   
     75000   75000          5.3416299      12.528925      2.371608       0.47230476    -52.676219      0.28060085    -52.95682       0             -1.6125875e-05 -31.961752      0.38376297    -0.15128559    -0.34288303   
     76000   76000          3.0662538      12.154436      2.0357341      0.12707684    -52.558704      0.1457368     -52.704441      0             -1.6125875e-05 -35.175203      0.3788481     -0.17506308    -0.27988252   
     77000   77000          2.6408706      11.260522      2.1969236      0.53731224    -51.376868      0.29299497    -51.669863      0             -1.6125875e-05 -34.741239      0.35187467    -0.14496888    -0.27613926   
     78000   78000          4.029826       11.293273      2.178478       0.10745635    -53.718712      0.29028604    -54.008998      0             -1.6125875e-05 -36.109678      0.33112523    -0.17688754    -0.23986688   
     79000   79000          6.4316154      11.993797      2.1640344      0.071482614   -54.436189      0.33281527    -54.769005      0             -1.6125875e-05 -33.77526       0.35780924    -0.19715838    -0.24533353   
     80000   80000          2.3868886      12.836655      2.180465       0.12406837    -52.148957      0.090009796   -52.238966      0             -1.6125875e-05 -34.620879      0.37481626    -0.19459435    -0.24527991   
     81000   81000          4.4623902      14.256389      2.3643356      0.10257624    -52.235562      0.25793609    -52.493498      0             -1.6125875e-05 -31.04987       0.33824922    -0.18299503    -0.23389599   
     82000   82000          2.0225366      14.087994      2.0528987      0.0012628919  -54.705751      0.44998323    -55.155734      0             -1.6125875e-05 -36.541059      0.33522732    -0.20865558    -0.2399232    
     83000   83000          3.2292608      12.979025      2.0801689      0.023443442   -52.500427      0.51039422    -53.010821      0             -1.6125875e-05 -34.188529      0.38430889    -0.16141654    -0.31926296   
     84000   84000          1.8142841      11.231183      2.1197219      0.081349339   -52.459767      0.16250984    -52.622276      0             -1.6125875e-05 -37.213228      0.37978576    -0.20347438    -0.284792     
     85000   85000          3.7610565      14.433039      2.2037457      0.70920505    -54.180314      0.27884121    -54.459155      0             -1.6125875e-05 -33.073268      0.34152154    -0.2071914     -0.22050414   
     86000   86000          2.1923702      14.4085        2.0379177      0.057483863   -53.372353      1.0281999     -54.400553      0             -1.6125875e-05 -34.676081      0.29637123    -0.15181366    -0.21527182   
     87000   87000          2.2998495      16.646312      2.052332       0.080720499   -54.456864      0.27449676    -54.73136       0             -1.6125875e-05 -33.37765       0.32592898    -0.18734919    -0.24944924   
     88000   88000          2.4606186      14.913749      2.0778257      0.08692806    -52.4213        0.444162      -52.865462      0             -1.6125875e-05 -32.882179      0.35845258    -0.16527374    -0.28886995   
     89000   89000          1.5730882      12.433302      2.3116847      0.16350628    -53.283252      0.52797862    -53.811231      0             -1.6125875e-05 -36.801671      0.3281271     -0.16984573    -0.20974007   
     90000   90000          8.3515259      15.667818      2.2972994      0.067768291   -54.949496      0.20045416    -55.149951      0             -1.6125875e-05 -28.565085      0.30433613    -0.19608645    -0.22515564   
     91000   91000          2.6727         11.405734      2.1169803      0.25334227    -51.636555      0.54261105    -52.179166      0             -1.6125875e-05 -35.187798      0.35852847    -0.13488213    -0.32990834   
     92000   92000          5.618084       13.62735       2.2229484      0.032582547   -53.184662      0.47717225    -53.661835      0             -1.6125875e-05 -31.683697      0.37222221    -0.12279309    -0.35107985   
     93000   93000          2.6136866      10.931522      2.0691692      0.080427968   -53.354912      0.42344213    -53.778354      0             -1.6125875e-05 -37.660106      0.31617113    -0.15077478    -0.27486077   
     94000   94000          3.7507091      9.4112056      3.346304       0.70523145    -49.431774      0.69183603    -50.12361       0             -1.6125875e-05 -32.218324      0.43073283    -0.076468443   -0.41938263   
     95000   95000          3.7104756      8.3924106      2.3976659      0.0200215     -51.121446      0.16925013    -51.290696      0             -1.6125875e-05 -36.600872      0.42931186    -0.13866797    -0.39738365   
     96000   96000          4.3927663      12.034811      2.9023017      1.2178998     -52.187967      0.35558877    -52.543555      0             -1.6125875e-05 -31.640188      0.40824094    -0.17418264    -0.3185953    
     97000   97000          1.9286276      11.277596      2.0316524      0.069699017   -51.490352      0.4958989     -51.986251      0             -1.6125875e-05 -36.182777      0.34719044    -0.10622343    -0.31855672   
     98000   98000          3.8829648      16.319259      2.4725102      0.096076415   -53.386235      0.26018171    -53.646417      0             -1.6125875e-05 -30.615424      0.36821332    -0.20830013    -0.30203768   
     99000   99000          3.9642879      11.752511      2.0466487      0.11552419    -53.356165      0.10918317    -53.465348      0             -1.6125875e-05 -35.477193      0.35218345    -0.18816605    -0.2830178    
    100000   100000         2.6065115      9.7814154      2.0614373      0.017983964   -51.252829      0.49868227    -51.751511      0             -1.6125875e-05 -36.785481      0.38740623    -0.11244772    -0.35293143   
    101000   101000         2.9205875      12.223335      2.2024661      0.00087779992 -53.205232      0.11985255    -53.325084      0             -1.6125875e-05 -35.857965      0.40500109    -0.17724694    -0.32777387   
    102000   102000         2.1734544      9.326563       2.0481334      0.11008331    -51.04133       0.16728828    -51.208619      0             -1.6125875e-05 -37.383096      0.37951851    -0.1613789     -0.31737608   
    103000   103000         1.269765       9.868794       2.1332915      0.0086053996  -49.825943      0.47290575    -50.298848      0             -1.6125875e-05 -36.545487      0.39657842    -0.099630825   -0.32504322   
    104000   104000         3.8539812      10.486942      2.151479       0.12776856    -52.990325      0.13223857    -53.122563      0             -1.6125875e-05 -36.370154      0.3875948     -0.17890979    -0.2888057    
    105000   105000         1.2846168      8.8853213      2.3286198      0.29563816    -50.480867      0.32542313    -50.80629       0             -1.6125875e-05 -37.686671      0.40902422    -0.14665955    -0.30699051   
    106000   106000         1.7972434      8.8617326      2.157266       0.030763533   -50.491281      0.52236953    -51.013651      0             -1.6125875e-05 -37.644276      0.38597519    -0.11132642    -0.34689678   
    107000   107000         2.0702482      10.734596      2.2155105      0.0012020793  -52.532971      0.49720668    -53.030177      0             -1.6125875e-05 -37.511414      0.35709659    -0.15029045    -0.31581055   
    108000   108000         2.2606452      10.098994      2.6066702      0.056783761   -50.392327      0.73559552    -51.127923      0             -1.6125875e-05 -35.369234      0.41989316    -0.073167304   -0.40620668   
    109000   109000         2.1820421      9.925461       2.1007091      0.085192203   -51.919521      0.24588296    -52.165404      0             -1.6125875e-05 -37.626117      0.39619952    -0.16846393    -0.3286508    
    110000   110000         3.6713711      8.9603674      3.031206       0.0090264608  -50.35492       0.76118317    -51.116103      0             -1.6125875e-05 -34.682949      0.39652347    -0.15399977    -0.27762964   
    111000   111000         4.0366525      10.664304      2.6747301      0.087862459   -50.215914      0.90634284    -51.122256      0             -1.6125875e-05 -32.752365      0.38999094    -0.08674356    -0.302336     
    112000   112000         2.7538463      11.266167      2.1250767      0.18123728    -52.420099      0.30028397    -52.720383      0             -1.6125875e-05 -36.093772      0.3760942     -0.15784539    -0.31243064   
    113000   113000         1.2480445      11.169106      2.3130125      0.57264015    -49.851837      0.55262802    -50.404465      0             -1.6125875e-05 -34.549034      0.37569763    -0.087777986   -0.33747966   
    114000   114000         0.80501807     9.1233727      2.0410444      0.0048800201  -51.076084      1.0010472     -52.077131      0             -1.6125875e-05 -39.101769      0.33611518    -0.12997139    -0.26282042   
    115000   115000         3.2478675      9.5244127      2.1864576      0.24323511    -53.241231      0.1956308     -53.436862      0             -1.6125875e-05 -38.039258      0.35770922    -0.15173158    -0.30834587   
    116000   116000         3.7111397      9.3868184      2.4208434      0.24359124    -49.192559      0.49174045    -49.684299      0             -1.6125875e-05 -33.430166      0.45814821    -0.099349028   -0.41440969   
    117000   117000         1.2224277      11.028601      2.0696472      0.0021337479  -51.567052      0.086557337   -51.653609      0             -1.6125875e-05 -37.244242      0.39626086    -0.18316322    -0.31827531   
    118000   118000         4.152132       9.8847134      2.468111       0.019227357   -52.058514      0.5499745     -52.608489      0             -1.6125875e-05 -35.534331      0.39342777    -0.13635664    -0.34179796   
    119000   119000         2.0432253      11.818675      2.8806549      0.0036571817  -51.720901      0.39070873    -52.11161       0             -1.6125875e-05 -34.974689      0.39129246    -0.16068954    -0.34369754   
    120000   120000         2.2560748      13.082514      1.9989596      0.0039882188  -53.180551      0.13437242    -53.314924      0             -1.6125875e-05 -35.839015      0.35407294    -0.20345781    -0.25812205   
    121000   121000         2.5233974      15.006661      2.3686003      0.066772431   -54.354255      0.51833725    -54.872592      0             -1.6125875e-05 -34.388824      0.3173262     -0.20417043    -0.14542297   
    122000   122000         2.0051392      10.357729      2.4003945      0.16345808    -52.274634      0.52667153    -52.801306      0             -1.6125875e-05 -37.347914      0.34861619    -0.13721096    -0.27792773   
    123000   123000         1.3634054      11.320122      2.3755734      0.037056498   -52.527226      0.034197009   -52.561423      0             -1.6125875e-05 -37.431069      0.38559938    -0.21551176    -0.2860594    
    124000   124000         2.4793816      12.148917      2.4141472      0.42892812    -52.125991      0.34862261    -52.474614      0             -1.6125875e-05 -34.654618      0.37212157    -0.12454299    -0.35027204   
    125000   125000         2.0038937      12.209673      2.8444273      0.010811352   -53.541254      0.43406648    -53.975321      0             -1.6125875e-05 -36.472449      0.38584588    -0.15608983    -0.33728705   
    126000   126000         0.86263356     10.759241      2.3915855      0.0017777599  -51.600703      0.088394255   -51.689098      0             -1.6125875e-05 -37.585465      0.3752087     -0.14600612    -0.34496957   
    127000   127000         1.7782932      10.319822      2.5135537      0.69771733    -51.317582      0.37363614    -51.691218      0             -1.6125875e-05 -36.008196      0.35904499    -0.097623543   -0.34548497   
    128000   128000         4.6231508      12.0266        2.3967129      0.050731629   -52.88774       0.57867988    -53.46642       0             -1.6125875e-05 -33.790545      0.35310882    -0.14477884    -0.28264838   
    129000   129000         1.0673687      10.453029      3.0243533      0.026691955   -49.026574      0.33160888    -49.358183      0             -1.6125875e-05 -34.455131      0.43231437    -0.14492415    -0.20267773   
    130000   130000         1.6318008      12.610239      2.1808268      0.44869892    -53.458956      0.23912088    -53.698077      0             -1.6125875e-05 -36.587391      0.34561551    -0.25887558     0.048563636  
    131000   131000         2.5840054      14.528429      2.1750432      0.44920412    -54.447727      0.62980254    -55.077529      0             -1.6125875e-05 -34.711045      0.2975813     -0.2412178      0.14508345   
    132000   132000         0.85818656     10.917532      2.3491442      0.021132354   -49.932154      0.65622186    -50.588376      0             -1.6125875e-05 -35.786159      0.42032573    -0.25679207     0.33274139   
    133000   133000         1.2189304      12.140249      2.4757177      0.032229883   -52.832527      0.11124123    -52.943768      0             -1.6125875e-05 -36.9654        0.37048618    -0.2458303      0.10189257   
    134000   134000         3.0777988      10.330103      2.4906156      0.14302858    -51.344764      0.46733484    -51.812099      0             -1.6125875e-05 -35.303217      0.37130719    -0.18180685     0.17105799   
    135000   135000         2.1878528      8.9366584      2.6445327      0.030292154   -50.344211      0.15136864    -50.49558       0             -1.6125875e-05 -36.544875      0.44450522    -0.21327484     0.17657168   
    136000   136000         3.4330297      10.108465      2.6630022      0.021135963   -52.175851      0.41640696    -52.592258      0             -1.6125875e-05 -35.950218      0.38598981    -0.25510948     0.22914622   
    137000   137000         1.5462109      15.184207      2.1890554      1.1734314     -54.301424      0.47634668    -54.777771      0             -1.6125875e-05 -34.20852       0.32076125    -0.20771897     0.091693538  
    138000   138000         1.9199344      16.280194      2.3126328      0.087227578   -53.193575      0.28302012    -53.476595      0             -1.6125875e-05 -32.593586      0.3595623     -0.25968947     0.15784681   
    139000   139000         1.484143       9.1137771      3.120035       0.04426404    -49.813847      0.46552064    -50.279368      0             -1.6125875e-05 -36.051628      0.43464874    -0.19796004     0.19636813   
    140000   140000         4.0071492      10.881455      2.5819585      0.70378594    -52.647923      0.25406889    -52.901992      0             -1.6125875e-05 -34.473574      0.36101116    -0.22664888     0.17992644   
    141000   141000         1.5513478      13.765592      2.4535657      0.13258956    -54.514522      0.22491641    -54.739439      0             -1.6125875e-05 -36.611427      0.37214966    -0.28943646     0.1440727    
    142000   142000         2.2565023      9.5071584      2.0624761      0.081217512   -49.462592      0.3802807     -49.842872      0             -1.6125875e-05 -35.555237      0.43076386    -0.22236943     0.27508641   
    143000   143000         3.581624       11.364331      2.3935995      0.035853587   -52.977792      0.20688003    -53.184672      0             -1.6125875e-05 -35.602384      0.36182738    -0.2533354      0.20406841   
    144000   144000         2.8224715      11.58619       2.6699143      0.13485987    -51.863107      0.52119975    -52.384306      0             -1.6125875e-05 -34.64967       0.37341005    -0.25286453     0.24899136   
    145000   145000         1.9709804      10.191986      2.3791649      0.50281627    -51.735875      0.11679994    -51.852675      0             -1.6125875e-05 -36.690928      0.39688402    -0.27393396     0.21792545   
    146000   146000         2.7786834      12.034482      2.7110933      1.5308927     -52.86782       0.2175017     -53.085322      0             -1.6125875e-05 -33.812669      0.38071596    -0.27809266     0.20602337   
    147000   147000         3.437258       9.0223137      2.8114453      0.54117395    -51.823804      0.50606818    -52.329872      0             -1.6125875e-05 -36.011613      0.38159401    -0.24432904     0.26660139   
    148000   148000         0.90814063     12.397901      3.6278963      0.28537528    -52.007739      0.011278161   -52.019017      0             -1.6125875e-05 -34.788425      0.43885624    -0.33603366     0.2629547    
    149000   149000         1.7749849      9.0115558      3.1125187      0.076464799   -50.03587       0.26216151    -50.298031      0             -1.6125875e-05 -36.060345      0.44061894    -0.27089135     0.31729058   
    150000   150000         3.1392648      9.7508316      2.6552466      0.0081527195  -52.346863      1.0162817     -53.363145      0             -1.6125875e-05 -36.793367      0.36604272    -0.23998723     0.25885313   
    151000   151000         4.9846437      17.151006      2.0878552      0.064419784   -56.575002      0.24692576    -56.821928      0             -1.6125875e-05 -32.287077      0.32011638    -0.27153497     0.089295889  
    152000   152000         1.0789663      10.038363      2.4244003      0.024283528   -49.855243      0.47605137    -50.331295      0             -1.6125875e-05 -36.28923       0.38521942    -0.17375531     0.20082272   
    153000   153000         4.601116       11.779864      2.3236573      0.49911219    -50.46995       0.37184915    -50.8418        0             -1.6125875e-05 -31.266201      0.43246326    -0.22640099     0.31336184   
    154000   154000         3.4390695      11.192369      3.6169095      0.0024722062  -53.21762       0.70646318    -53.924083      0             -1.6125875e-05 -34.9668        0.39725136    -0.21948751     0.11827666   
    155000   155000         2.4876967      13.118288      2.3574083      0.85345998    -51.858199      0.32711586    -52.185315      0             -1.6125875e-05 -33.041346      0.33504734    -0.20910727     0.17565122   
    156000   156000         2.8190894      10.426037      4.5640025      0.061433765   -51.706426      0.27233434    -51.97876       0             -1.6125875e-05 -33.835863      0.45037603    -0.25948388     0.20630418   
    157000   157000         3.5259676      10.646167      2.3005982      0.87770226    -50.750095      0.92654604    -51.676641      0             -1.6125875e-05 -33.399661      0.41143845    -0.18383516     0.28554492   
    158000   158000         2.4708744      10.338748      2.1031919      0.19031142    -52.216111      0.27635538    -52.492466      0             -1.6125875e-05 -37.112984      0.36614317    -0.18866282     0.10004649   
    159000   159000         1.8250455      10.212566      2.5450356      0.10434179    -52.654267      0.1821349     -52.836402      0             -1.6125875e-05 -37.967279      0.35253087    -0.2168429      0.12440927   
    160000   160000         4.392036       9.2710003      2.4300578      0.15155654    -50.102876      0.59387585    -50.696752      0             -1.6125875e-05 -33.858225      0.40377117    -0.042833469   -0.12499399   
    161000   161000         1.731812       9.6105975      3.2665341      0.32234863    -51.803987      0.23099568    -52.034982      0             -1.6125875e-05 -36.872694      0.42911896    -0.20928782     0.088486652  
    162000   162000         2.3833518      10.944611      2.2683396      1.0490681     -51.556729      0.35031148    -51.90704       0             -1.6125875e-05 -34.911358      0.33992932    -0.13544795    -0.10270369   
    163000   163000         4.0385626      13.229621      2.3352341      0.35155455    -54.262577      0.20457271    -54.46715       0             -1.6125875e-05 -34.307605      0.31510963    -0.17737698    -0.032330098  
    164000   164000         4.1853785      10.237596      2.7998734      0.018611241   -52.671997      0.30820224    -52.980199      0             -1.6125875e-05 -35.430538      0.40027047    -0.21167291     0.087666239  
    165000   165000         3.8418695      10.126836      2.5824702      0.31145926    -48.910535      0.3294052     -49.239941      0             -1.6125875e-05 -32.0479        0.44732201    -0.092403706   -0.092703434  
    166000   166000         2.6691543      10.789196      2.2645963      0.0043645098  -50.212183      0.19895565    -50.411139      0             -1.6125875e-05 -34.484872      0.43164454    -0.12755118    -0.063590211  
    167000   167000         3.7667891      12.920477      2.1824615      0.03347852    -49.529324      0.39230544    -49.921629      0             -1.6125875e-05 -30.626118      0.46340257    -0.098698274   -0.053554825  
    168000   168000         2.0423636      10.297767      2.1436298      0.0051157274  -50.343602      0.13510279    -50.478705      0             -1.6125875e-05 -35.854726      0.42802929    -0.1339436     -0.05182108   
    169000   169000         1.6101192      10.410749      2.0959763      0.0040365064  -49.932756      0.088251447   -50.021007      0             -1.6125875e-05 -35.811875      0.45551724    -0.16175815    -0.029771659  
    170000   170000         1.2339591      8.6392277      2.0857337      0.0035537178  -50.023941      0.43519038    -50.459132      0             -1.6125875e-05 -38.061467      0.41508349    -0.1115052     -0.024940211  
    171000   171000         5.3939692      9.0933837      2.179873       0.18152733    -52.959091      0.21861488    -53.177706      0             -1.6125875e-05 -36.110338      0.3406531     -0.16053253    -0.028340571  
    172000   172000         2.3243091      10.390404      2.0600576      0.26424541    -51.498706      0.41662712    -51.915334      0             -1.6125875e-05 -36.459691      0.37423101    -0.16329605     0.013969795  
    173000   173000         2.5399335      9.8087951      2.2983452      0.31840325    -50.313273      0.25785089    -50.571124      0             -1.6125875e-05 -35.347796      0.39409423    -0.13269788     0.0635207    
    174000   174000         3.5955064      11.840146      3.2823266      0.085647393   -52.563592      0.13904652    -52.702639      0             -1.6125875e-05 -33.759966      0.42427799    -0.26149769     0.10757856   
    175000   175000         3.0763564      12.299711      2.5453807      1.6101416     -52.657507      0.39262019    -53.050127      0             -1.6125875e-05 -33.125917      0.35118793    -0.16074671    -0.041140978  
    176000   176000         1.2860719      9.6916106      3.4761835      0.014139886   -50.294353      0.36331922    -50.657672      0             -1.6125875e-05 -35.826347      0.46701084    -0.20031079     0.12979948   
    177000   177000         3.3448141      11.121367      4.0700995      0.025304247   -52.753438      0.19012444    -52.943562      0             -1.6125875e-05 -34.191853      0.45601834    -0.18557872    -0.21873463   
    178000   178000         3.6014771      10.505236      2.1219632      0.42296734    -49.874058      0.63106037    -50.505118      0             -1.6125875e-05 -33.222414      0.38322763    -0.1241141     -0.010077247  
    179000   179000         0.40216491     10.750107      2.222032       0.50345718    -51.573714      0.2885058     -51.86222       0             -1.6125875e-05 -37.695953      0.38823498    -0.19884787    -0.0045291288 
    180000   180000         6.1161063      8.848802       2.9200687      0.15345253    -53.342513      0.33555633    -53.67807       0             -1.6125875e-05 -35.304084      0.39547679    -0.17033379    -0.11976603   
    181000   181000         3.1064024      13.581041      3.2053027      1.1663278     -51.354335      1.126327      -52.480662      0             -1.6125875e-05 -30.295262      0.36802292    -0.13338055    -0.12048658   
    182000   182000         4.0509305      8.9830173      2.5120314      0.0036044582  -50.744522      0.13531329    -50.879836      0             -1.6125875e-05 -35.194939      0.38100224    -0.16580844     0.047712395  
    183000   183000         1.19242        9.5148627      2.6066784      0.38714232    -52.249152      0.55391454    -52.803067      0             -1.6125875e-05 -38.548049      0.36255009    -0.18385781     0.043126433  
    184000   184000         3.4653799      11.265423      2.210477       1.0054475     -52.333268      1.1361407     -53.469408      0             -1.6125875e-05 -34.38654       0.34078416    -0.14155675    -0.019558435  
    185000   185000         2.7718905      9.0164745      3.4036876      0.030768897   -51.240298      0.11067312    -51.350971      0             -1.6125875e-05 -36.017476      0.43017191    -0.1408452     -0.16194932   
    186000   186000         1.6351524      10.714202      3.2728253      0.21971523    -52.133057      0.41086557    -52.543923      0             -1.6125875e-05 -36.291162      0.37949735    -0.14059425    -0.15071355   
    187000   187000         4.3527481      10.146669      2.1859155      0.62001177    -52.503654      0.44182534    -52.945479      0             -1.6125875e-05 -35.198309      0.34388624    -0.15746039    -0.00037118421
    188000   188000         3.262208       10.856465      2.4729412      0.40383359    -52.525338      0.18257011    -52.707908      0             -1.6125875e-05 -35.52989       0.3599957     -0.19420684     0.068489639  
    189000   189000         2.8804057      9.8699457      2.3390865      0.37231767    -49.504732      0.2215269     -49.726259      0             -1.6125875e-05 -34.042977      0.44385647    -0.13052455    -0.062879552  
    190000   190000         5.6926251      9.0639312      2.3478755      0.12499052    -51.397582      0.32516397    -51.722746      0             -1.6125875e-05 -34.16816       0.40347823    -0.13184153    -0.10806589   
    191000   191000         1.546364       10.397223      2.5936886      0.25667132    -52.586991      0.22289724    -52.809888      0             -1.6125875e-05 -37.793044      0.38598652    -0.17325165    -0.074229296  
    192000   192000         1.8179441      11.711056      2.6397078      0.63219328    -48.929374      0.30715614    -49.23653       0             -1.6125875e-05 -32.128473      0.43027752    -0.083076495   -0.075270251  
    193000   193000         4.3278466      13.893802      2.7997863      0.53400822    -53.595426      0.06462176    -53.660047      0             -1.6125875e-05 -32.039983      0.35353312    -0.19333395    -0.08319999   
    194000   194000         2.7304958      12.625629      3.2491735      0.39208064    -52.379399      0.41366474    -52.793064      0             -1.6125875e-05 -33.38202       0.3577528     -0.16755522     0.094694519  
    195000   195000         1.584656       10.255072      3.8954341      0.099101028   -51.121326      0.31946025    -51.440786      0             -1.6125875e-05 -35.287063      0.39961405    -0.26060621     0.27751534   
    196000   196000         2.7597212      14.313049      3.2891613      0.13678661    -53.695325      0.14002501    -53.83535       0             -1.6125875e-05 -33.196607      0.41240813    -0.30940918     0.23293887   
    197000   197000         1.4479091      11.211394      2.6547604      0.15647349    -52.003526      0.70572932    -52.709256      0             -1.6125875e-05 -36.53299       0.357738      -0.17762502     0.12191516   
    198000   198000         4.785596       12.242622      2.2981964      0.17616041    -52.242483      0.065371694   -52.307855      0             -1.6125875e-05 -32.739908      0.35320578    -0.19588412     0.014187788  
    199000   199000         1.6018699      9.8155136      2.5359391      0.65694937    -51.41706       0.53795198    -51.955012      0             -1.6125875e-05 -36.806788      0.38110602    -0.15959126     0.016284977  
    200000   200000         3.7386372      9.5214433      2.2104587      0.40404548    -52.18158       0.75008854    -52.931668      0             -1.6125875e-05 -36.306995      0.38537388    -0.18842185     0.10739703   
    201000   201000         3.9374713      11.781429      2.1849548      0.010267886   -53.608955      0.072569343   -53.681525      0             -1.6125875e-05 -35.694832      0.39648442    -0.26743451     0.10955175   
    202000   202000         3.0140729      12.007056      2.4531278      0.11145207    -50.704783      0.35510396    -51.059887      0             -1.6125875e-05 -33.119074      0.3653531     -0.18651787     0.1440242    
    203000   203000         1.9438396      15.071644      2.0740114      0.0019788336  -55.004793      0.2658047     -55.270597      0             -1.6125875e-05 -35.913319      0.31763773    -0.2145816      0.051008587  
    204000   204000         2.9792611      17.264403      2.1012178      0.015694555   -53.977765      0.97846367    -54.956228      0             -1.6125875e-05 -31.617188      0.31160004    -0.20046676     0.027954002  
    205000   205000         1.8704374      10.186258      2.0264307      0.082726167   -50.094533      0.69360741    -50.78814       0             -1.6125875e-05 -35.92868       0.37097538    -0.1282425      0.10345933   
    206000   206000         1.8591148      15.806507      2.4806474      0.030847339   -54.449873      0.3392836     -54.789157      0             -1.6125875e-05 -34.272756      0.35118266    -0.1971693     -0.049175515  
    207000   207000         1.9236793      10.653837      2.1593854      0.00040508917 -52.788653      0.23395364    -53.022607      0             -1.6125875e-05 -38.051346      0.33745571    -0.1362594     -0.07011047   
    208000   208000         3.739527       9.0050354      2.5706204      0.00033487133 -50.593769      0.25201123    -50.84578       0             -1.6125875e-05 -35.278251      0.38161899    -0.11915375    -0.12328234   
    209000   209000         1.9466364      11.322179      2.4539499      0.048163658   -52.430707      0.29482131    -52.725528      0             -1.6125875e-05 -36.659778      0.39124147    -0.15375029    -0.12350416   
    210000   210000         2.4368078      11.187039      2.9216134      0.017008013   -50.755897      0.73258731    -51.488484      0             -1.6125875e-05 -34.193429      0.41956625    -0.090654263   -0.21890318   
    211000   211000         4.3314556      10.818624      2.5298361      0.71004783    -50.930872      0.14692712    -51.077799      0             -1.6125875e-05 -32.540908      0.40106946    -0.13435222    -0.21088899   
    212000   212000         3.2322794      8.9767292      2.7209131      0.59887563    -51.308798      0.18387979    -51.492677      0             -1.6125875e-05 -35.78          0.35857071    -0.12340315    -0.21586025   
    213000   213000         3.0905876      12.94858       2.7790198      0.58120454    -50.451691      0.86181201    -51.313503      0             -1.6125875e-05 -31.052298      0.39619557    -0.034353957   -0.22315469   
    214000   214000         3.3224847      11.633883      2.2030046      0.29298527    -53.88732       0.23122391    -54.118544      0             -1.6125875e-05 -36.434962      0.35473622    -0.14784563    -0.17651188   
    215000   215000         1.1282219      11.079858      2.1315984      0.0075063471  -51.516177      0.27021264    -51.78639       0             -1.6125875e-05 -37.168993      0.35440317    -0.13635092    -0.17987976   
    216000   216000         2.2564778      10.849515      2.2511198      0.0032186302  -50.864516      0.5984825     -51.462998      0             -1.6125875e-05 -35.504184      0.36673203    -0.11503834    -0.19290175   
    217000   217000         2.2741222      12.99272       2.3336685      0.2864439     -54.233704      0.46064009    -54.694344      0             -1.6125875e-05 -36.346749      0.3471651     -0.17445305    -0.11200306   
    218000   218000         1.1817328      12.995492      2.5388917      0.9687649     -53.270807      0.3528127     -53.62362       0             -1.6125875e-05 -35.585926      0.32116078    -0.13913239    -0.10082158   
    219000   219000         4.5565092      13.16281       2.224541       0.29224823    -50.445844      0.3738035     -50.819647      0             -1.6125875e-05 -30.209736      0.34819595    -0.080979885   -0.18147082   
    220000   220000         2.2002684      13.389004      3.2421586      1.2197349     -53.076167      0.44442214    -53.520589      0             -1.6125875e-05 -33.025001      0.35395997    -0.14178253    -0.20532053   
    221000   221000         2.1826576      9.3360219      2.3525534      0.1654935     -51.791206      0.70224357    -52.49345       0             -1.6125875e-05 -37.75448       0.36761189    -0.10529879    -0.10122153   
    222000   222000         2.6661384      12.524365      2.3143002      0.0021404061  -51.224485      0.059324697   -51.283809      0             -1.6125875e-05 -33.717541      0.41528393    -0.19147027    -0.029802141  
    223000   223000         1.4290623      9.7924182      3.1906476      0.23161941    -51.482676      0.14992044    -51.632596      0             -1.6125875e-05 -36.838928      0.42773427    -0.17947703    -0.077378573  
    224000   224000         3.5554137      10.501789      2.0696771      0.10651814    -51.822773      0.51938314    -52.342157      0             -1.6125875e-05 -35.589375      0.35381495    -0.092666308   -0.15152069   
    225000   225000         1.2634916      9.8663848      2.2570071      0.47324305    -51.65725       0.42147985    -52.07873       0             -1.6125875e-05 -37.797124      0.37588061    -0.18651419     0.0061420133 
    226000   226000         2.441242       11.151139      2.4324853      0.21722626    -51.006943      0.26895377    -51.275896      0             -1.6125875e-05 -34.76485       0.397398      -0.22758528     0.1714961    
    227000   227000         2.0070628      12.129047      2.7640794      2.1951907     -52.539996      0.35429055    -52.894286      0             -1.6125875e-05 -33.444616      0.37196873    -0.21087559     0.1923714    
    228000   228000         1.314879       12.00085       2.3885047      0.016539634   -51.864103      0.22803312    -52.092136      0             -1.6125875e-05 -36.14333       0.36107482    -0.23505123     0.20133313   
    229000   229000         0.98149431     12.372498      3.7906551      1.0178174     -51.869973      0.15796477    -52.027937      0             -1.6125875e-05 -33.707508      0.39177329    -0.27659828     0.17080158   
    230000   230000         3.1577366      12.823548      2.4567342      0.1327569     -53.4843        0.61276055    -54.097061      0             -1.6125875e-05 -34.913525      0.39011313    -0.18853577    -0.016066281  
    231000   231000         3.5371632      10.665605      2.9114617      0.52497306    -52.763235      0.3521191     -53.115354      0             -1.6125875e-05 -35.124032      0.39069842    -0.13666721    -0.18267191   
    232000   232000         1.3111038      10.311723      2.3888255      0.86139879    -50.351153      0.19097348    -50.542126      0             -1.6125875e-05 -35.478102      0.37228711    -0.10260242    -0.23544472   
    233000   233000         1.7534346      12.309532      2.5487023      0.97132865    -52.541675      0.31817253    -52.859847      0             -1.6125875e-05 -34.958678      0.34150446    -0.14400926    -0.16719799   
    234000   234000         3.0904269      12.970638      2.2011489      0.38968775    -54.3664        0.25071693    -54.617117      0             -1.6125875e-05 -35.714498      0.37796059    -0.17232696    -0.28385619   
    235000   235000         2.0278709      10.362674      3.3906913      0.0035794521  -49.56378       0.47518381    -50.038964      0             -1.6125875e-05 -33.778964      0.45858045    -0.081663879   -0.34014029   
    236000   236000         1.0167508      10.613242      2.202186       0.14988201    -52.975705      0.26809161    -53.243796      0             -1.6125875e-05 -38.993644      0.3542834     -0.14193       -0.27616625   
    237000   237000         1.7768852      13.747261      2.4907668      0.33952516    -54.212372      0.62306416    -54.835437      0             -1.6125875e-05 -35.857934      0.32184195    -0.17124438    -0.27219806   
    238000   238000         2.7762429      9.9272108      3.3598723      0.26787659    -48.797763      0.27237874    -49.070141      0             -1.6125875e-05 -32.46656       0.44918685    -0.08430499    -0.3616548    
    239000   239000         1.8133038      16.667103      2.7004929      0.0027544024  -54.133737      0.26945819    -54.403195      0             -1.6125875e-05 -32.950083      0.35717084    -0.17155842    -0.2665897    
    240000   240000         2.8078821      14.768443      2.138187       0.64598118    -55.01943       0.31441015    -55.33384       0             -1.6125875e-05 -34.658937      0.36929732    -0.18081258    -0.21660955   
    241000   241000         1.7322228      8.8782746      2.716921       0.028636525   -50.531798      0.3731159     -50.904913      0             -1.6125875e-05 -37.175743      0.38656023    -0.12105656     0.049210017  
    242000   242000         2.289456       11.650916      2.5938179      0.06426384    -52.806247      0.24533184    -53.051579      0             -1.6125875e-05 -36.207793      0.34703825    -0.23089403     0.14773287   
    243000   243000         1.7394595      12.580757      2.2073419      0.30347281    -51.688507      0.72507421    -52.413581      0             -1.6125875e-05 -34.857475      0.36112909    -0.17175866     0.084623111  
    244000   244000         3.3764959      9.4017795      2.6295438      0.010373792   -52.198163      0.44297182    -52.641134      0             -1.6125875e-05 -36.77997       0.39714003    -0.16651869    -0.033452658  
    245000   245000         1.0179897      9.9150889      2.0111603      0.016387252   -51.071437      0.17977566    -51.251213      0             -1.6125875e-05 -38.110811      0.42010668    -0.19596608     0.096344522  
    246000   246000         1.1799754      10.700777      2.6337014      1.9315077     -50.458988      0.88571599    -51.344704      0             -1.6125875e-05 -34.013026      0.4087593     -0.11625932    -0.0012988805 
    247000   247000         2.1941829      11.17913       2.6142267      1.3811652     -52.707607      0.27412144    -52.981729      0             -1.6125875e-05 -35.338903      0.32080877    -0.12368443    -0.21059771   
    248000   248000         3.1569434      10.414921      2.3802731      0.046908908   -52.086332      0.085145284   -52.171477      0             -1.6125875e-05 -36.087285      0.36399645    -0.16299294    -0.27357479   
    249000   249000         2.0162568      11.222024      3.1409434      1.2920732     -51.613921      0.3500753     -51.963996      0             -1.6125875e-05 -33.942624      0.42819815    -0.2587963      0.0212476    
    250000   250000         1.9451669      10.061593      2.3990515      0.0019387293  -50.846592      0.31174071    -51.158333      0             -1.6125875e-05 -36.438842      0.40830861    -0.24511213     0.12191482   
    251000   251000         1.1048412      10.594447      2.6187666      0.48102292    -51.764225      0.12541917    -51.889645      0             -1.6125875e-05 -36.965148      0.39611657    -0.2862851      0.10994376   
    252000   252000         2.6484834      10.86973       2.9177539      1.1490167     -52.183384      0.17803871    -52.361423      0             -1.6125875e-05 -34.5984        0.40090166    -0.32019492     0.22338905   
    253000   253000         1.5342095      11.058383      2.2846282      0.0078823142  -52.387394      0.22215144    -52.609545      0             -1.6125875e-05 -37.502291      0.3931266     -0.24181641     0.17124346   
    254000   254000         4.7238967      10.785533      4.0769926      0.8557815     -51.437645      0.25823982    -51.695885      0             -1.6125875e-05 -30.995441      0.45878851    -0.14448243    -0.18441234   
    255000   255000         4.3086808      10.88459       2.3664736      0.00044009326 -51.68058       0.46499966    -52.14558       0             -1.6125875e-05 -34.120395      0.34161805    -0.10781336    -0.25802192   
    256000   256000         1.4284244      9.6270565      2.5535279      0.47762134    -52.004072      0.30980453    -52.313876      0             -1.6125875e-05 -37.917442      0.37122658    -0.098749118   -0.33285249   
    257000   257000         2.3428572      11.1547        2.9342101      0.26776286    -51.088647      0.15238679    -51.241034      0             -1.6125875e-05 -34.389116      0.428646      -0.13433881    -0.40650483   
    258000   258000         0.8467258      9.4725217      2.1870568      0.40478016    -51.5819        0.16927007    -51.75117       0             -1.6125875e-05 -38.670816      0.37790094    -0.19485003    -0.19752875   
    259000   259000         2.7755979      10.799898      2.3589214      1.2405254     -52.112251      0.55606766    -52.668318      0             -1.6125875e-05 -34.937308      0.37558612    -0.27293372     0.046183785  
    260000   260000         2.4240124      10.653846      2.883856       0.056185879   -50.831846      0.16786787    -50.999714      0             -1.6125875e-05 -34.813946      0.43544146    -0.2973473      0.16776911   
    261000   261000         2.9619733      12.965819      3.5283472      0.28002939    -52.844737      0.15995691    -53.004694      0             -1.6125875e-05 -33.108568      0.42433843    -0.31041301     0.10679476   
    262000   262000         2.4661154      10.982493      2.2013066      0.00068634664 -52.913875      0.29270275    -53.206578      0             -1.6125875e-05 -37.263274      0.34058874    -0.2545215      0.187337     
    263000   263000         1.5129035      12.094941      2.3943658      0.66180577    -51.502248      0.49107009    -51.993318      0             -1.6125875e-05 -34.838231      0.36802953    -0.234594       0.28081976   
    264000   264000         0.60106545     9.6685438      2.5859318      0.49059367    -51.468278      0.16967066    -51.637949      0             -1.6125875e-05 -38.122144      0.40034402    -0.27350326     0.27917018   
    265000   265000         5.0209982      10.85722       2.021777       0.0028106026  -51.736961      0.48756564    -52.224527      0             -1.6125875e-05 -33.834155      0.421957      -0.24346686     0.27239513   
    266000   266000         1.6003673      11.043901      2.7893875      1.5057906     -52.049744      0.46400053    -52.513745      0             -1.6125875e-05 -35.110298      0.37578871    -0.25784831     0.26917353   
    267000   267000         4.227467       11.679285      2.3935185      0.30020112    -52.582153      0.090716209   -52.672869      0             -1.6125875e-05 -33.981682      0.33824306    -0.24794841     0.22485683   
    268000   268000         1.4772118      11.661848      2.2232985      0.06386033    -53.522771      0.435422      -53.958193      0             -1.6125875e-05 -38.096553      0.35106811    -0.26989856     0.2124289    
    269000   269000         3.3506646      10.5415        3.2830215      0.33808639    -52.636989      0.30812896    -52.945118      0             -1.6125875e-05 -35.123717      0.42769018    -0.22090804     0.095561605  
    270000   270000         0.66534692     8.9866672      2.3084357      0.082194771   -51.520106      0.37509987    -51.895206      0             -1.6125875e-05 -39.477461      0.36580443    -0.1534878     -0.046395633  
    271000   271000         3.3111396      8.6905109      2.3615582      0.0077813962  -50.618312      0.38442494    -51.002737      0             -1.6125875e-05 -36.247322      0.36110846    -0.07894623    -0.076011701  
    272000   272000         2.7647113      8.7752499      2.6647967      0.022910715   -51.277558      0.43941828    -51.716976      0             -1.6125875e-05 -37.049889      0.41772848    -0.13775145    -0.035632601  
    273000   273000         3.6806872      12.37099       2.847729       0.010065048   -51.612304      0.32442999    -51.936734      0             -1.6125875e-05 -32.702832      0.40105671    -0.18115414    -0.074910661  
    274000   274000         3.9574671      13.11381       2.4518321      0.028271622   -54.473721      0.11977999    -54.593501      0             -1.6125875e-05 -34.922341      0.33003857    -0.19810967    -0.034192716  
    275000   275000         2.9498344      10.374466      3.0864205      1.1245768     -50.048141      0.87065164    -50.918793      0             -1.6125875e-05 -32.512844      0.43053519    -0.18639264     0.11133604   
    276000   276000         3.5135931      11.119465      2.6366915      1.7869596     -51.221403      0.13286133    -51.354264      0             -1.6125875e-05 -32.164693      0.42965353    -0.22847238     0.20279636   
    277000   277000         1.8841544      10.689231      2.7123262      1.3123921     -51.297937      0.23314357    -51.531081      0             -1.6125875e-05 -34.699834      0.35322541    -0.21981178     0.23099731   
    278000   278000         1.7975018      12.323827      3.0145997      0.011341569   -52.204003      0.44755067    -52.651554      0             -1.6125875e-05 -35.056733      0.37198879    -0.25846752     0.23662645   
    279000   279000         2.6842899      13.431385      2.4037745      0.4303816     -53.002547      0.19620176    -53.198749      0             -1.6125875e-05 -34.052716      0.40475283    -0.33917898     0.11272228   
    280000   280000         2.3180519      11.673225      2.4828086      0.08820976    -52.148643      0.41222207    -52.560865      0             -1.6125875e-05 -35.586347      0.35132641    -0.23044042    -0.010703965  
    281000   281000         3.4397295      9.4840442      2.3099454      0.020694109   -50.917121      0.96099661    -51.878117      0             -1.6125875e-05 -35.662708      0.37479873    -0.24923726     0.09845448   
    282000   282000         6.4770779      8.2566255      2.4338497      0.3009859     -51.396801      0.26130721    -51.658108      0             -1.6125875e-05 -33.928262      0.41605609    -0.28400824     0.18930724   
    283000   283000         4.3169631      10.191261      2.7995537      0.010243362   -49.574944      0.45829705    -50.033241      0             -1.6125875e-05 -32.256923      0.42607778    -0.25751619     0.087560263  
    284000   284000         3.864595       10.660201      2.5865537      0.039246097   -52.850407      0.26604841    -53.116455      0             -1.6125875e-05 -35.699811      0.37899491    -0.26405259     0.041805758  
    285000   285000         4.5798243      12.630834      2.2249617      0.092019161   -52.873789      0.2162028     -53.089992      0             -1.6125875e-05 -33.34615       0.34489348    -0.27079655     0.20750369   
    286000   286000         3.8982728      8.8230302      2.4601597      0.030088851   -50.40008       0.27928403    -50.679364      0             -1.6125875e-05 -35.188528      0.39796671    -0.21054463     0.19904484   
    287000   287000         3.9629548      19.271328      2.2376457      0.913943      -56.133886      0.0053646577  -56.139251      0             -1.6125875e-05 -29.748015      0.40486189    -0.30645406     0.027095151  
    288000   288000         1.8061474      8.9460802      2.49749        0.60974047    -51.952168      0.40450308    -52.356671      0             -1.6125875e-05 -38.09271       0.37398851    -0.13922342    -0.1447197    
    289000   289000         3.7878162      9.4017871      2.4929351      0.014354471   -51.763873      0.41531472    -52.179188      0             -1.6125875e-05 -36.06698       0.38038182    -0.12727952    -0.19454667   
    290000   290000         3.8685847      13.635371      2.1282257      0.078182769   -54.796962      0.2128511     -55.009813      0             -1.6125875e-05 -35.086598      0.3405944     -0.1800906     -0.19050139   
    291000   291000         5.0648699      12.232677      2.2392053      0.010927496   -51.023753      1.0393979     -52.063151      0             -1.6125875e-05 -31.476073      0.3400047     -0.060362104   -0.21151905   
    292000   292000         3.0229935      14.542795      2.1091047      0.0027881891  -55.046428      0.22343899    -55.269867      0             -1.6125875e-05 -35.368747      0.35426075    -0.19253359    -0.17650638   
    293000   293000         3.7467084      10.9753        2.5634002      0.053159802   -52.523049      0.4852338     -53.008282      0             -1.6125875e-05 -35.18448       0.36868235    -0.12746387    -0.2354511    
    294000   294000         5.4975586      9.620745       2.5033172      0.074214298   -51.127497      0.65512714    -51.782624      0             -1.6125875e-05 -33.431662      0.37702852    -0.13302881    -0.11340159   
    295000   295000         4.4433039      12.725245      2.0619982      0.1069378     -54.738301      0.089872314   -54.828174      0             -1.6125875e-05 -35.400816      0.38315936    -0.23795449     0.00061304368
    296000   296000         4.7563867      8.2575566      2.3520039      0.20320906    -50.267943      0.45162224    -50.719565      0             -1.6125875e-05 -34.698786      0.41215708    -0.1970754      0.19457746   
    297000   297000         3.073229       11.186939      2.6352044      0.1418882     -53.046972      0.05974424    -53.106716      0             -1.6125875e-05 -36.009711      0.39779759    -0.29967958     0.21132777   
    298000   298000         2.6468082      8.9792782      2.3484447      0.011580061   -52.865989      0.38611284    -53.252102      0             -1.6125875e-05 -38.879878      0.38723768    -0.28093415     0.24407794   
    299000   299000         2.5983081      9.107027       2.4899796      0.10856904    -50.345864      0.53532912    -50.881193      0             -1.6125875e-05 -36.041981      0.41835525    -0.23823375     0.32278536   
    300000   300000         2.6127261      13.374644      2.1765885      1.0473177     -52.964997      0.019813497   -52.98481       0             -1.6125875e-05 -33.753721      0.39227866    -0.31823518     0.22627693   
    301000   301000         2.9396182      9.4972966      2.3135521      0.32285676    -50.82235       0.58403582    -51.406385      0             -1.6125875e-05 -35.749026      0.3650281     -0.19867576     0.30005862   
    302000   302000         2.2595562      13.501601      2.9278782      0.28001536    -53.867214      0.56718171    -54.434396      0             -1.6125875e-05 -34.898164      0.34610097    -0.234421       0.15145794   
    303000   303000         4.3012624      13.153457      3.7901813      0.12223359    -53.32566       0.063441801   -53.389102      0             -1.6125875e-05 -31.958526      0.44090997    -0.29014945     0.17655252   
    304000   304000         4.5378207      9.7183728      2.489578       0.64088278    -51.56894       0.54961657    -52.118557      0             -1.6125875e-05 -34.182286      0.36104748    -0.23760549     0.23335665   
    305000   305000         6.8716477      11.764041      2.3559619      1.7392407     -53.430946      0.13546467    -53.566411      0             -1.6125875e-05 -30.700055      0.36487374    -0.25234902     0.2543626    
    306000   306000         3.7298832      10.13337       2.2754298      0.33596274    -48.714988      0.80692937    -49.521917      0             -1.6125875e-05 -32.240342      0.41632498    -0.20370522     0.34741824   
    307000   307000         3.5808415      9.7790638      2.4293144      9.1772478e-05 -52.746737      0.24663017    -52.993367      0             -1.6125875e-05 -36.957425      0.34861579    -0.25848894     0.23203452   
    308000   308000         2.7846061      10.888582      3.0407794      0.19422187    -52.389077      0.35422815    -52.743305      0             -1.6125875e-05 -35.480887      0.36063302    -0.26219959     0.18997098   
    309000   309000         1.9544547      10.998653      2.2967608      0.42940979    -50.99788       0.53758324    -51.535463      0             -1.6125875e-05 -35.318601      0.37855569    -0.2003872     -0.062533584  
    310000   310000         2.5095826      12.820604      2.1207334      0.0079860337  -54.169311      0.11103254    -54.280344      0             -1.6125875e-05 -36.710405      0.37921734    -0.19850505    -0.32009456   
    311000   311000         1.8656236      8.9315917      2.8510951      0.17054584    -51.20515       0.44834724    -51.653498      0             -1.6125875e-05 -37.386294      0.40640152    -0.10830811    -0.29197878   
    312000   312000         3.3538772      10.584365      2.9389764      0.13125121    -52.997459      0.18974737    -53.187206      0             -1.6125875e-05 -35.988989      0.40306132    -0.20378385    -0.0026904671 
    313000   313000         3.1634248      10.872907      2.6486345      0.20166855    -52.366161      0.30084841    -52.66701       0             -1.6125875e-05 -35.479527      0.36620441    -0.2281614      0.15503236   
    314000   314000         2.382176       9.6945286      2.1410055      0.74794908    -50.400738      0.56322849    -50.963967      0             -1.6125875e-05 -35.435079      0.39627217    -0.20743389     0.32449167   
    315000   315000         3.9596983      11.43917       2.4385892      1.0906422     -52.785008      0.19207145    -52.97708       0             -1.6125875e-05 -33.856909      0.35372713    -0.26696507     0.22546013   
    316000   316000         4.2613401      9.2373651      2.3293769      0.25680922    -50.277994      0.45468962    -50.732684      0             -1.6125875e-05 -34.193103      0.3786408     -0.19731504     0.1062774    
    317000   317000         2.8377207      9.8061522      2.9212332      0.27653526    -52.962589      0.25106708    -53.213656      0             -1.6125875e-05 -37.120948      0.3760675     -0.18501262    -0.24100138   
    318000   318000         2.751263       10.61787       2.7194906      0.59356477    -53.115604      0.19855097    -53.314155      0             -1.6125875e-05 -36.433416      0.37912598    -0.17533515    -0.3139942    
    319000   319000         3.0229743      8.5848261      2.4105299      2.5058481e-05 -50.725988      0.3718882     -51.097876      0             -1.6125875e-05 -36.707633      0.37285601    -0.16684919    -0.23612089   
    320000   320000         5.1153017      13.695663      3.2050319      0.26442714    -54.976105      0.25634127    -55.232446      0             -1.6125875e-05 -32.695681      0.41543066    -0.29529197    -0.095828905  
    321000   321000         2.8216059      11.043864      2.5026171      0.0014509189  -53.378366      0.67149796    -54.049864      0             -1.6125875e-05 -37.008828      0.34250221    -0.17848383    -0.18722085   
    322000   322000         4.5049339      8.4134174      2.2041481      0.98999172    -49.319616      0.15803106    -49.477647      0             -1.6125875e-05 -33.207125      0.39528018    -0.081205334   -0.36248967   
    323000   323000         2.6537344      10.018728      2.3606387      0.42175324    -53.081343      0.14765882    -53.229001      0             -1.6125875e-05 -37.626489      0.35140884    -0.14541519    -0.31988326   
    324000   324000         3.1108406      10.998369      2.9495637      0.035380152   -52.500856      0.52795908    -53.028815      0             -1.6125875e-05 -35.406702      0.39809349    -0.12615799    -0.36334164   
    325000   325000         2.0549323      10.307964      4.2711068      0.0018384606  -51.458459      0.10957213    -51.568031      0             -1.6125875e-05 -34.822617      0.43897038    -0.15316453    -0.30174175   
    326000   326000         2.447838       9.5212138      2.5630665      1.1010536     -51.96951       0.36538543    -52.334896      0             -1.6125875e-05 -36.336338      0.33291782    -0.16470449     0.12403859   
    327000   327000         3.344458       9.3687443      2.3916716      0.79040034    -52.000016      0.27816773    -52.278184      0             -1.6125875e-05 -36.104742      0.36130974    -0.23295203     0.27427769   
    328000   328000         3.2744889      13.539687      2.5792483      0.12476874    -53.155083      0.071416194   -53.226499      0             -1.6125875e-05 -33.636889      0.40970722    -0.35388493     0.19904305   
    329000   329000         1.5137074      10.554359      2.1858882      0.014135991   -51.909299      0.60732304    -52.516622      0             -1.6125875e-05 -37.641208      0.36445964    -0.20666593     0.063137536  
    330000   330000         3.5585083      9.4740814      2.6690792      0.93143363    -51.196151      0.59442175    -51.790572      0             -1.6125875e-05 -34.563048      0.36832061    -0.11726213    -0.2415       
    331000   331000         1.2878397      11.102506      2.4232468      0.19981422    -52.305077      0.10645613    -52.411534      0             -1.6125875e-05 -37.29167       0.36884651    -0.22214459    -0.2023158    
    332000   332000         3.4664209      10.331155      2.2769423      0.073348222   -49.999926      0.41650327    -50.416429      0             -1.6125875e-05 -33.85206       0.44929639    -0.19479165    -0.18042153   
    333000   333000         5.387774       11.999853      2.1309386      0.45995667    -54.734065      0.51890192    -55.252967      0             -1.6125875e-05 -34.755543      0.33706359    -0.21926062    -0.088762123  
    334000   334000         1.9293421      10.534775      2.4110059      0.28328899    -51.497782      0.12562241    -51.623404      0             -1.6125875e-05 -36.33937       0.37184296    -0.25086982    -0.12088644   
    335000   335000         2.6075453      10.320534      2.3499921      0.039424227   -51.822093      0.21290008    -52.034993      0             -1.6125875e-05 -36.504598      0.37227157    -0.18428719    -0.1934673    
    336000   336000         3.0201326      14.114793      2.2668632      1.2501549     -54.117433      0.33759234    -54.455026      0             -1.6125875e-05 -33.465489      0.36015503    -0.23184586    -0.06576649   
    337000   337000         0.83198046     9.0279239      2.5903635      0.0034836262  -50.603633      0.27211061    -50.875743      0             -1.6125875e-05 -38.149881      0.39675005    -0.22820693    -0.048755513  
    338000   338000         2.2128201      10.281218      2.1961591      0.14840112    -50.515375      0.46598319    -50.981359      0             -1.6125875e-05 -35.676777      0.41507931    -0.29059004     0.23488267   
    339000   339000         5.4891954      12.796297      2.4775341      0.062730622   -54.041987      0.79533679    -54.837324      0             -1.6125875e-05 -33.216229      0.33284175    -0.22201045     0.19656545   
    340000   340000         1.6831736      9.481707       2.4203989      0.44684411    -51.607466      0.16028253    -51.767749      0             -1.6125875e-05 -37.575343      0.3522954     -0.19369016     0.10913462   
    341000   341000         3.1491158      9.0787682      2.9963688      0.088364819   -51.040422      0.062972581   -51.103394      0             -1.6125875e-05 -35.727804      0.4192595     -0.14349662    -0.27023118   
    342000   342000         3.1219904      10.569371      2.2149796      0.12620194    -52.569967      0.4964226     -53.06639       0             -1.6125875e-05 -36.537424      0.35676007    -0.096437271   -0.29065838   
    343000   343000         2.5450662      13.859797      2.304488       0.42675136    -53.570225      0.029743735   -53.599969      0             -1.6125875e-05 -34.434123      0.36810675    -0.16712393    -0.26337303   
    344000   344000         1.0170607      8.7357172      3.3313589      0.051424825   -50.793816      0.12501823    -50.918834      0             -1.6125875e-05 -37.658255      0.42008907    -0.20635231     0.056225063  
[...]
    917000   917000         1.2308758      10.722927      2.1735523      0.10239023    -52.491067      0.74476941    -53.235837      0             -1.6125875e-05 -38.261322      0.34369715    -0.22700434    -0.064341396  
    918000   918000         5.6454983      12.855691      2.0255661      0.13006438    -54.182435      0.5897235     -54.772158      0             -1.6125875e-05 -33.525615      0.32727153    -0.23053005    -0.019466848  
    919000   919000         3.7357891      8.5913939      2.051004       0.0018931939  -50.360357      0.34496767    -50.705325      0             -1.6125875e-05 -35.980277      0.37807525    -0.21574784    -0.0047664831 
    920000   920000         4.3361607      12.606088      2.4349639      0.026133577   -51.271998      0.024834222   -51.296832      0             -1.6125875e-05 -31.868652      0.39583132    -0.25739568     0.022354507  
    921000   921000         1.199166       11.50566       2.5024744      0.081799815   -51.271385      0.48709347    -51.758479      0             -1.6125875e-05 -35.982284      0.37948854    -0.23620259     0.026654114  
    922000   922000         3.4828647      15.328687      2.2425607      0.26586654    -50.653311      0.6044441     -51.257755      0             -1.6125875e-05 -29.333332      0.36098335    -0.1638832     -0.051150871  
    923000   923000         0.96674966     13.435668      2.2901907      0.00082440091 -53.152868      0.11683387    -53.269701      0             -1.6125875e-05 -36.459435      0.34042396    -0.27362728    -0.037770016  
    924000   924000         0.97306146     10.957721      2.0688235      0.12775253    -51.127879      0.20861405    -51.336493      0             -1.6125875e-05 -37.00052       0.39082792    -0.24918192    -0.041621186  
    925000   925000         5.6270817      10.312757      2.2283433      0.087637033   -52.914242      0.35319713    -53.26744       0             -1.6125875e-05 -34.658423      0.40026186    -0.24985147    -0.069665301  
    926000   926000         3.4393986      11.836115      2.1298195      0.14167403    -53.902008      0.38553223    -54.28754       0             -1.6125875e-05 -36.355         0.35004695    -0.26219707    -0.059660588  
    927000   927000         2.0675283      9.579109       2.0238099      0.069822361   -50.676286      0.24812816    -50.924414      0             -1.6125875e-05 -36.936016      0.36024609    -0.20536932    -0.0060159211 
    928000   928000         3.7285859      11.575483      2.5954066      0.032946066   -51.565314      0.051997081   -51.617312      0             -1.6125875e-05 -33.632893      0.39953704    -0.28051272     0.046718924  
    929000   929000         1.6335797      9.836828       2.5551056      0.014874898   -52.100358      0.27743989    -52.377798      0             -1.6125875e-05 -38.059969      0.40501134    -0.25732553     0.052954368  
    930000   930000         3.5856956      10.149162      2.1360412      0.021516155   -51.018386      0.49791553    -51.516302      0             -1.6125875e-05 -35.125972      0.39279829    -0.20869145     0.026216382  
    931000   931000         2.2233516      11.047748      2.0243044      0.044260794   -51.676796      0.23876284    -51.915559      0             -1.6125875e-05 -36.337131      0.37592967    -0.26714859    -0.022600197  
    932000   932000         9.0146008      11.160147      2.3104569      0.093305515   -51.126549      0.43235358    -51.558902      0             -1.6125875e-05 -28.548039      0.4176871     -0.24193426    -0.055111011  
    933000   933000         5.4794836      10.828059      2.2351659      0.013170296   -52.693099      0.63208069    -53.325179      0             -1.6125875e-05 -34.13722       0.37335825    -0.25337639    -0.055773663  
    934000   934000         4.2910837      10.666683      2.0821393      0.3308715     -53.397739      0.20731497    -53.605054      0             -1.6125875e-05 -36.026961      0.35149129    -0.25608637    -0.041219158  
    935000   935000         6.4402703      15.14686       2.0838251      0.53162843    -52.920323      0.12124529    -53.041568      0             -1.6125875e-05 -28.717739      0.35781996    -0.27817925    -0.065549776  
    936000   936000         2.8759005      10.231265      2.0238166      0.054666873   -51.925691      0.20801571    -52.133706      0             -1.6125875e-05 -36.740042      0.38095895    -0.24200498    -0.030648789  
    937000   937000         6.832615       9.6712041      2.1087251      0.0011851739  -53.187869      0.32996041    -53.51783       0             -1.6125875e-05 -34.57414       0.39056088    -0.25764025    -0.026896772  
    938000   938000         1.310966       9.9453068      2.1083302      0.0012964823  -52.197925      0.238981      -52.436906      0             -1.6125875e-05 -38.832026      0.35546533    -0.25356437    -0.014880785  
    939000   939000         5.3780632      10.341334      2.2277065      0.1119188     -49.621737      0.64240356    -50.26414       0             -1.6125875e-05 -31.562715      0.38624118    -0.20470805    -0.014619776  
    940000   940000         8.0856575      12.708311      2.4612513      0.34271235    -53.195467      0.19684585    -53.392312      0             -1.6125875e-05 -29.597534      0.40247115    -0.28549764     0.010980508  
    941000   941000         4.6467969      9.9422311      2.8525031      0.1937323     -51.110277      0.68408215    -51.794359      0             -1.6125875e-05 -33.475014      0.45300177    -0.25849006     0.028199647  
    942000   942000         0.69963399     10.518611      2.4728098      0.013742982   -52.049146      0.12644573    -52.175592      0             -1.6125875e-05 -38.344348      0.37926837    -0.27758808     0.0046652283 
    943000   943000         3.1573601      9.4274793      2.2398712      0.047942312   -51.368468      0.37038805    -51.738856      0             -1.6125875e-05 -36.495815      0.35264865    -0.22009976    -0.088763193  
    944000   944000         1.7833165      10.674059      2.1840784      0.26962326    -53.071702      0.39051781    -53.46222       0             -1.6125875e-05 -38.160625      0.38326386    -0.24326615    -0.092944563  
    945000   945000         1.5100065      11.53171       2.3187769      0.11980728    -52.293794      0.12382764    -52.417621      0             -1.6125875e-05 -36.813493      0.41379097    -0.27399281    -0.10814997   
    946000   946000         2.7972845      10.186535      2.5879322      0.089168894   -51.847256      0.23886492    -52.086121      0             -1.6125875e-05 -36.186335      0.39244116    -0.24079232    -0.12758118   
    947000   947000         1.8836329      9.9650232      2.4653341      0.26227899    -50.998045      0.58237416    -51.58042       0             -1.6125875e-05 -36.421776      0.36150927    -0.21100008     0.0039292799 
    948000   948000         3.7586875      9.5380293      2.547183       0.13066945    -52.080609      0.22717035    -52.30778       0             -1.6125875e-05 -36.10604       0.3537408     -0.22495178    -0.033040173  
    949000   949000         2.080374       12.534304      2.0382812      0.024235802   -51.149588      0.12897887    -51.278567      0             -1.6125875e-05 -34.472393      0.40705754    -0.2548946      0.040491492  
    950000   950000         2.2555559      9.4815979      2.1669116      0.00031390752 -51.006086      0.44075392    -51.44684       0             -1.6125875e-05 -37.101706      0.41200657    -0.22681693     0.057310303  
    951000   951000         3.5872002      11.603846      2.3993142      0.20075164    -52.625051      1.1907316     -53.815782      0             -1.6125875e-05 -34.833938      0.32706723    -0.22315964     0.11058673   
    952000   952000         1.4330657      10.599757      2.1016033      0.036385846   -51.955196      0.71501768    -52.670214      0             -1.6125875e-05 -37.784384      0.31694434    -0.22188017     0.042865789  
    953000   953000         1.1160533      11.471425      2.4036814      0.0040534803  -51.913723      0.30739959    -52.221122      0             -1.6125875e-05 -36.91851       0.37548625    -0.26114594    -0.0011944549 
    954000   954000         2.8083926      13.327546      2.1327036      0.03282798    -53.200044      0.33990048    -53.539945      0             -1.6125875e-05 -34.898574      0.4110371     -0.24499829    -0.17256482   
    955000   955000         2.2694871      9.9988936      2.0931423      0.069963781   -52.123928      0.56510458    -52.689032      0             -1.6125875e-05 -37.692441      0.3792361     -0.1284485     -0.34630982   
    956000   956000         2.583277       13.22945       2.4573212      0.42998446    -50.160053      0.57185668    -50.731909      0             -1.6125875e-05 -31.46002       0.34192847    -0.1145886     -0.25093482   
    957000   957000         2.8135726      11.887186      2.4948317      0.19671592    -51.950485      0.18561613    -52.136101      0             -1.6125875e-05 -34.558178      0.35127056    -0.17875386    -0.035386566  
    958000   958000         3.3901545      10.835795      2.1908102      0.17075296    -52.597452      0.56532358    -53.162776      0             -1.6125875e-05 -36.009939      0.38464444    -0.17749825     0.16279789   
    959000   959000         3.5264409      11.91463       2.0765899      0.0675314     -50.551878      0.44891187    -51.00079       0             -1.6125875e-05 -32.966686      0.44877578    -0.22642435     0.36185126   
    960000   960000         2.4215896      10.757756      2.0167561      0.033000402   -49.940352      0.28837592    -50.228728      0             -1.6125875e-05 -34.71125       0.41533135    -0.27541309     0.3059807    
    961000   961000         1.0437957      10.913933      2.285516       0.046938525   -51.296772      0.51964204    -51.816414      0             -1.6125875e-05 -37.006589      0.34809147    -0.21534837     0.11727339   
    962000   962000         3.3404083      9.0303413      2.1671381      0.032085526   -52.268331      0.41179516    -52.680126      0             -1.6125875e-05 -37.698358      0.32269721    -0.18043799    -0.14320995   
    963000   963000         2.9400574      12.859521      2.4120579      0.046741025   -52.185466      0.24717824    -52.432644      0             -1.6125875e-05 -33.927089      0.36140135    -0.17529677    -0.30852748   
    964000   964000         1.1728934      11.579234      2.1249877      0.10194891    -51.791471      0.34907946    -52.14055       0             -1.6125875e-05 -36.812407      0.36213764    -0.1498934     -0.32864639   
    965000   965000         2.5729566      11.000507      2.2233524      0.30222708    -51.093137      1.0369455     -52.130082      0             -1.6125875e-05 -34.994094      0.37070345    -0.12629633    -0.33173385   
    966000   966000         2.4687985      11.035955      2.166436       0.081467971   -51.043458      0.64261526    -51.686073      0             -1.6125875e-05 -35.2908        0.34581249    -0.15279727    -0.26571257   
    967000   967000         1.8368527      11.766882      2.3752828      0.013445344   -51.936886      0.14743572    -52.084322      0             -1.6125875e-05 -35.944424      0.35152148    -0.23663682    -0.045369893  
    968000   968000         3.0517125      11.444698      2.494303       0.048436856   -51.463816      0.52893248    -51.992748      0             -1.6125875e-05 -34.424665      0.38980112    -0.2315888      0.062418241  
    969000   969000         2.1692472      10.700005      2.0331055      0.18514703    -52.560836      0.47977432    -53.04061       0             -1.6125875e-05 -37.473332      0.38219302    -0.24180675     0.084042692  
    970000   970000         2.0274811      9.2846657      2.3785968      0.060680642   -50.52446       0.44692839    -50.971388      0             -1.6125875e-05 -36.773036      0.40070803    -0.24169494     0.0076521011 
    971000   971000         1.33718        13.568879      3.0733063      0.049815585   -49.921683      1.1188794     -51.040562      0             -1.6125875e-05 -31.892502      0.37167322    -0.2323242     -0.014464976  
    972000   972000         3.4218557      10.457114      2.3758449      0.01117143    -53.700216      0.37419334    -54.074409      0             -1.6125875e-05 -37.43423       0.3461489     -0.24510617    -0.012318214  
    973000   973000         1.8178413      13.788628      2.1932388      0.12413353    -53.426227      0.28323473    -53.709461      0             -1.6125875e-05 -35.502385      0.41752486    -0.3037814     -0.0080780251 
    974000   974000         4.4987665      13.671844      2.0815303      0.011715762   -51.129489      0.1095505     -51.239039      0             -1.6125875e-05 -30.865632      0.44388667    -0.29488141    -0.043106649  
    975000   975000         2.5006795      11.001149      2.0416687      0.053643653   -51.838154      0.29323774    -52.131391      0             -1.6125875e-05 -36.241012      0.40837862    -0.25402207    -0.053866271  
    976000   976000         3.1488841      12.194228      2.2803164      0.021676759   -52.517298      0.55907287    -53.076371      0             -1.6125875e-05 -34.872193      0.34316341    -0.22952269     0.079449277  
    977000   977000         3.0941772      13.921051      2.4089239      0.44498253    -51.498467      0.33327257    -51.831739      0             -1.6125875e-05 -31.629332      0.33977949    -0.24798033     0.099291436  
    978000   978000         0.87744059     8.5524614      2.1312566      0.44179502    -50.479813      0.29191579    -50.771729      0             -1.6125875e-05 -38.476859      0.38724414    -0.22952251    -0.11681766   
    979000   979000         2.0147504      12.295268      2.6459506      0.75005309    -51.39268       0.81020115    -52.202881      0             -1.6125875e-05 -33.686659      0.43589786    -0.18800229    -0.35955477   
    980000   980000         2.2743407      11.100139      2.569643       0.4002408     -52.479835      0.61825824    -53.098093      0             -1.6125875e-05 -36.135472      0.38597317    -0.17277891    -0.3315381    
    981000   981000         2.0193114      12.575441      2.8146053      0.001816168   -52.234705      0.15236598    -52.387071      0             -1.6125875e-05 -34.823531      0.38025053    -0.17401619    -0.27012483   
    982000   982000         3.4303641      17.48713       2.5089742      0.00019341058 -52.776926      0.18246322    -52.95939       0             -1.6125875e-05 -29.350265      0.32967764    -0.17413918    -0.12212895   
    983000   983000         2.0999203      12.342576      2.2521823      0.052701192   -53.611939      0.83112055    -54.443059      0             -1.6125875e-05 -36.864559      0.30811425    -0.14663238    -0.15359052   
    984000   984000         2.9679651      16.107306      2.4346957      0.53262472    -54.075257      0.43816488    -54.513422      0             -1.6125875e-05 -32.032665      0.35077018    -0.14645939    -0.22100115   
    985000   985000         2.3237396      10.779711      2.7491406      0.0058418915  -50.902151      0.39498154    -51.297133      0             -1.6125875e-05 -35.043719      0.41444053    -0.17418221    -0.36478438   
    986000   986000         3.1203011      11.44242       2.842927       0.009188654   -52.341403      0.60061636    -52.94202       0             -1.6125875e-05 -34.926566      0.37972524    -0.17976669    -0.32054066   
    987000   987000         3.0961297      13.054222      2.8522637      0.0010264202  -54.214951      0.41980373    -54.634755      0             -1.6125875e-05 -35.21131       0.33190278    -0.21559281    -0.19523131   
    988000   988000         1.7654494      10.9463        2.6240934      0.00165119    -51.945445      0.10716015    -52.052605      0             -1.6125875e-05 -36.607951      0.3830047     -0.21235235    -0.29484529   
    989000   989000         0.40831572     11.18726       2.0265421      0.00053934163 -51.839145      0.14321079    -51.982356      0             -1.6125875e-05 -38.216488      0.38585489    -0.15259436    -0.33265433   
    990000   990000         3.1068329      12.421736      2.3070244      0.10449801    -53.272653      0.73273665    -54.00539       0             -1.6125875e-05 -35.332562      0.34785381    -0.14188617    -0.10963695   
    991000   991000         0.95507208     10.145179      2.4326129      0.0054564996  -50.886421      0.57827156    -51.464693      0             -1.6125875e-05 -37.3481        0.36886104    -0.13694264    -0.001129156  
    992000   992000         1.6002281      10.323161      2.9872522      0.011250937   -50.801045      0.30226859    -51.103313      0             -1.6125875e-05 -35.879153      0.42226632    -0.1574221     -0.21672768   
    993000   993000         4.6233552      13.678074      2.7985621      0.18983457    -53.445255      0.64975996    -54.095015      0             -1.6125875e-05 -32.155429      0.40880787    -0.17433749    -0.36446194   
    994000   994000         3.6892829      12.027741      2.2587676      0.096809153   -53.498696      0.40116048    -53.899857      0             -1.6125875e-05 -35.426096      0.38206431    -0.2345742     -0.2271656    
    995000   995000         1.6952323      8.685082       2.47925        0.26406336    -50.990416      0.33672353    -51.32714       0             -1.6125875e-05 -37.866788      0.38390572    -0.27722533     0.10916996   
    996000   996000         1.4972319      11.628409      2.5154091      0.040465099   -51.772         0.39359194    -52.165592      0             -1.6125875e-05 -36.090484      0.38435014    -0.27289718     0.26786577   
    997000   997000         4.7170691      12.566462      3.4899693      0.11030562    -54.118447      0.44540618    -54.563853      0             -1.6125875e-05 -33.23464       0.37051068    -0.26028819     0.20530337   
    998000   998000         1.5002972      11.758585      2.962524       0.033510048   -52.360732      0.38200476    -52.742737      0             -1.6125875e-05 -36.105816      0.39892898    -0.22644724     0.21222442   
    999000   999000         1.2883624      12.393925      2.6882004      0.14531513    -51.704384      0.26966709    -51.974051      0             -1.6125875e-05 -35.188582      0.41844681    -0.24454994     0.24252893   
   1000000   1000000        4.8012087      13.098453      2.8267321      0.51565394    -54.629993      0.50818634    -55.138179      0             -1.6125875e-05 -33.387945      0.34104982    -0.23656042     0.21299163   
Loop time of 1.99054 on 1 procs for 1000000 steps with 8 atoms

Performance: 43405.303 ns/day, 0.001 hours/ns, 502376.187 timesteps/s, 4.019 Matom-step/s
98.2% CPU use with 1 MPI tasks x 1 OpenMP threads

MPI task timing breakdown:
Section |  min time  |  avg time  |  max time  |%varavg| %total
---------------------------------------------------------------
Pair    | 0.14872    | 0.14872    | 0.14872    |   0.0 |  7.47
Bond    | 1.031      | 1.031      | 1.031      |   0.0 | 51.80
Neigh   | 0.04711    | 0.04711    | 0.04711    |   0.0 |  2.37
Comm    | 0.23817    | 0.23817    | 0.23817    |   0.0 | 11.97
Output  | 0.051204   | 0.051204   | 0.051204   |   0.0 |  2.57
Modify  | 0.33176    | 0.33176    | 0.33176    |   0.0 | 16.67
Other   |            | 0.1425     |            |       |  7.16

Nlocal:              8 ave           8 max           8 min
Histogram: 1 0 0 0 0 0 0 0 0 0
Nghost:             56 ave          56 max          56 min
Histogram: 1 0 0 0 0 0 0 0 0 0
Neighs:             11 ave          11 max          11 min
Histogram: 1 0 0 0 0 0 0 0 0 0

Total # of neighbors = 11
Ave neighs/atom = 1.375
Ave special neighs/atom = 6.25
Neighbor list builds = 5545
Dangerous builds = 0
reset_timestep 0
ERROR: Cannot reset timestep with active dump - must undump first (src/output.cpp:641)
Last command: reset_timestep 0
